;
;	File 'topol.top' was generated
;	By user: go46vuw (4358430)
;	On host: TUMWMFM-GPU01
;	At date: Wed Dec 24 10:09:58 2025
;
;	This is a standalone topology file
;
;	Created by:
;	                    :-) GROMACS - gmx pdb2gmx, 2025.4 (-:
;	
;	Executable:   /home/go46vuw/Programs/gromacs/2025.4/install/bin/gmx_mpi
;	Data prefix:  /home/go46vuw/Programs/gromacs/2025.4/install
;	Working dir:  /home/go46vuw/IVLFIF/amber99sb_ildn/top
;	Command line:
;	  gmx_mpi pdb2gmx -f ../coords/ivlfif.pdb -o ../coords/ivlfif.gro -water tip3p -ff amber99sb-ildn -ignh -ter
;	Force field was read from the standard GROMACS share directory.
;

; Include forcefield parameters
#include "amber99sb-ildn.ff/forcefield.itp"

[ moleculetype ]
; Name            nrexcl
Protein_chain_A     3

[ atoms ]
;   nr       type  resnr residue  atom   cgnr     charge       mass  typeB    chargeB      massB
; residue   1 ILE rtp NILE q +1.0
     1         N3      1    ILE      N      1     0.0311      14.01
     2          H      1    ILE     H1      2     0.2329      1.008
     3          H      1    ILE     H2      3     0.2329      1.008
     4          H      1    ILE     H3      4     0.2329      1.008
     5         CT      1    ILE     CA      5     0.0257      12.01
     6         HP      1    ILE     HA      6     0.1031      1.008
     7         CT      1    ILE     CB      7     0.1885      12.01
     8         HC      1    ILE     HB      8     0.0213      1.008
     9         CT      1    ILE    CG2      9     -0.372      12.01
    10         HC      1    ILE   HG21     10     0.0947      1.008
    11         HC      1    ILE   HG22     11     0.0947      1.008
    12         HC      1    ILE   HG23     12     0.0947      1.008
    13         CT      1    ILE    CG1     13    -0.0387      12.01
    14         HC      1    ILE   HG11     14     0.0201      1.008
    15         HC      1    ILE   HG12     15     0.0201      1.008
    16         CT      1    ILE     CD     16    -0.0908      12.01
    17         HC      1    ILE    HD1     17     0.0226      1.008
    18         HC      1    ILE    HD2     18     0.0226      1.008
    19         HC      1    ILE    HD3     19     0.0226      1.008
    20          C      1    ILE      C     20     0.6123      12.01
    21          O      1    ILE      O     21    -0.5713         16   ; qtot 1
; residue   2 VAL rtp VAL  q  0.0
    22          N      2    VAL      N     22    -0.4157      14.01
    23          H      2    VAL      H     23     0.2719      1.008
    24         CT      2    VAL     CA     24    -0.0875      12.01
    25         H1      2    VAL     HA     25     0.0969      1.008
    26         CT      2    VAL     CB     26     0.2985      12.01
    27         HC      2    VAL     HB     27    -0.0297      1.008
    28         CT      2    VAL    CG1     28    -0.3192      12.01
    29         HC      2    VAL   HG11     29     0.0791      1.008
    30         HC      2    VAL   HG12     30     0.0791      1.008
    31         HC      2    VAL   HG13     31     0.0791      1.008
    32         CT      2    VAL    CG2     32    -0.3192      12.01
    33         HC      2    VAL   HG21     33     0.0791      1.008
    34         HC      2    VAL   HG22     34     0.0791      1.008
    35         HC      2    VAL   HG23     35     0.0791      1.008
    36          C      2    VAL      C     36     0.5973      12.01
    37          O      2    VAL      O     37    -0.5679         16   ; qtot 1
; residue   3 LEU rtp LEU  q  0.0
    38          N      3    LEU      N     38    -0.4157      14.01
    39          H      3    LEU      H     39     0.2719      1.008
    40         CT      3    LEU     CA     40    -0.0518      12.01
    41         H1      3    LEU     HA     41     0.0922      1.008
    42         CT      3    LEU     CB     42    -0.1102      12.01
    43         HC      3    LEU    HB1     43     0.0457      1.008
    44         HC      3    LEU    HB2     44     0.0457      1.008
    45         CT      3    LEU     CG     45     0.3531      12.01
    46         HC      3    LEU     HG     46    -0.0361      1.008
    47         CT      3    LEU    CD1     47    -0.4121      12.01
    48         HC      3    LEU   HD11     48        0.1      1.008
    49         HC      3    LEU   HD12     49        0.1      1.008
    50         HC      3    LEU   HD13     50        0.1      1.008
    51         CT      3    LEU    CD2     51    -0.4121      12.01
    52         HC      3    LEU   HD21     52        0.1      1.008
    53         HC      3    LEU   HD22     53        0.1      1.008
    54         HC      3    LEU   HD23     54        0.1      1.008
    55          C      3    LEU      C     55     0.5973      12.01
    56          O      3    LEU      O     56    -0.5679         16   ; qtot 1
; residue   4 PHE rtp PHE  q  0.0
    57          N      4    PHE      N     57    -0.4157      14.01
    58          H      4    PHE      H     58     0.2719      1.008
    59         CT      4    PHE     CA     59    -0.0024      12.01
    60         H1      4    PHE     HA     60     0.0978      1.008
    61         CT      4    PHE     CB     61    -0.0343      12.01
    62         HC      4    PHE    HB1     62     0.0295      1.008
    63         HC      4    PHE    HB2     63     0.0295      1.008
    64         CA      4    PHE     CG     64     0.0118      12.01
    65         CA      4    PHE    CD1     65    -0.1256      12.01
    66         HA      4    PHE    HD1     66      0.133      1.008
    67         CA      4    PHE    CE1     67    -0.1704      12.01
    68         HA      4    PHE    HE1     68      0.143      1.008
    69         CA      4    PHE     CZ     69    -0.1072      12.01
    70         HA      4    PHE     HZ     70     0.1297      1.008
    71         CA      4    PHE    CE2     71    -0.1704      12.01
    72         HA      4    PHE    HE2     72      0.143      1.008
    73         CA      4    PHE    CD2     73    -0.1256      12.01
    74         HA      4    PHE    HD2     74      0.133      1.008
    75          C      4    PHE      C     75     0.5973      12.01
    76          O      4    PHE      O     76    -0.5679         16   ; qtot 1
; residue   5 ILE rtp ILE  q  0.0
    77          N      5    ILE      N     77    -0.4157      14.01
    78          H      5    ILE      H     78     0.2719      1.008
    79         CT      5    ILE     CA     79    -0.0597      12.01
    80         H1      5    ILE     HA     80     0.0869      1.008
    81         CT      5    ILE     CB     81     0.1303      12.01
    82         HC      5    ILE     HB     82     0.0187      1.008
    83         CT      5    ILE    CG2     83    -0.3204      12.01
    84         HC      5    ILE   HG21     84     0.0882      1.008
    85         HC      5    ILE   HG22     85     0.0882      1.008
    86         HC      5    ILE   HG23     86     0.0882      1.008
    87         CT      5    ILE    CG1     87     -0.043      12.01
    88         HC      5    ILE   HG11     88     0.0236      1.008
    89         HC      5    ILE   HG12     89     0.0236      1.008
    90         CT      5    ILE     CD     90     -0.066      12.01
    91         HC      5    ILE    HD1     91     0.0186      1.008
    92         HC      5    ILE    HD2     92     0.0186      1.008
    93         HC      5    ILE    HD3     93     0.0186      1.008
    94          C      5    ILE      C     94     0.5973      12.01
    95          O      5    ILE      O     95    -0.5679         16   ; qtot 1
; residue   6 PHE rtp CPHE q -1.0
    96          N      6    PHE      N     96    -0.3821      14.01
    97          H      6    PHE      H     97     0.2681      1.008
    98         CT      6    PHE     CA     98    -0.1825      12.01
    99         H1      6    PHE     HA     99     0.1098      1.008
   100         CT      6    PHE     CB    100    -0.0959      12.01
   101         HC      6    PHE    HB1    101     0.0443      1.008
   102         HC      6    PHE    HB2    102     0.0443      1.008
   103         CA      6    PHE     CG    103     0.0552      12.01
   104         CA      6    PHE    CD1    104      -0.13      12.01
   105         HA      6    PHE    HD1    105     0.1408      1.008
   106         CA      6    PHE    CE1    106    -0.1847      12.01
   107         HA      6    PHE    HE1    107     0.1461      1.008
   108         CA      6    PHE     CZ    108    -0.0944      12.01
   109         HA      6    PHE     HZ    109      0.128      1.008
   110         CA      6    PHE    CE2    110    -0.1847      12.01
   111         HA      6    PHE    HE2    111     0.1461      1.008
   112         CA      6    PHE    CD2    112      -0.13      12.01
   113         HA      6    PHE    HD2    113     0.1408      1.008
   114          C      6    PHE      C    114      0.766      12.01
   115         O2      6    PHE    OC1    115    -0.8026         16
   116         O2      6    PHE    OC2    116    -0.8026         16   ; qtot 0

[ bonds ]
;  ai    aj funct            c0            c1            c2            c3
    1     2     1 
    1     3     1 
    1     4     1 
    1     5     1 
    5     6     1 
    5     7     1 
    5    20     1 
    7     8     1 
    7     9     1 
    7    13     1 
    9    10     1 
    9    11     1 
    9    12     1 
   13    14     1 
   13    15     1 
   13    16     1 
   16    17     1 
   16    18     1 
   16    19     1 
   20    21     1 
   20    22     1 
   22    23     1 
   22    24     1 
   24    25     1 
   24    26     1 
   24    36     1 
   26    27     1 
   26    28     1 
   26    32     1 
   28    29     1 
   28    30     1 
   28    31     1 
   32    33     1 
   32    34     1 
   32    35     1 
   36    37     1 
   36    38     1 
   38    39     1 
   38    40     1 
   40    41     1 
   40    42     1 
   40    55     1 
   42    43     1 
   42    44     1 
   42    45     1 
   45    46     1 
   45    47     1 
   45    51     1 
   47    48     1 
   47    49     1 
   47    50     1 
   51    52     1 
   51    53     1 
   51    54     1 
   55    56     1 
   55    57     1 
   57    58     1 
   57    59     1 
   59    60     1 
   59    61     1 
   59    75     1 
   61    62     1 
   61    63     1 
   61    64     1 
   64    65     1 
   64    73     1 
   65    66     1 
   65    67     1 
   67    68     1 
   67    69     1 
   69    70     1 
   69    71     1 
   71    72     1 
   71    73     1 
   73    74     1 
   75    76     1 
   75    77     1 
   77    78     1 
   77    79     1 
   79    80     1 
   79    81     1 
   79    94     1 
   81    82     1 
   81    83     1 
   81    87     1 
   83    84     1 
   83    85     1 
   83    86     1 
   87    88     1 
   87    89     1 
   87    90     1 
   90    91     1 
   90    92     1 
   90    93     1 
   94    95     1 
   94    96     1 
   96    97     1 
   96    98     1 
   98    99     1 
   98   100     1 
   98   114     1 
  100   101     1 
  100   102     1 
  100   103     1 
  103   104     1 
  103   112     1 
  104   105     1 
  104   106     1 
  106   107     1 
  106   108     1 
  108   109     1 
  108   110     1 
  110   111     1 
  110   112     1 
  112   113     1 
  114   115     1 
  114   116     1 

[ pairs ]
;  ai    aj funct            c0            c1            c2            c3
    1     8     1 
    1     9     1 
    1    13     1 
    1    21     1 
    1    22     1 
    2     6     1 
    2     7     1 
    2    20     1 
    3     6     1 
    3     7     1 
    3    20     1 
    4     6     1 
    4     7     1 
    4    20     1 
    5    10     1 
    5    11     1 
    5    12     1 
    5    14     1 
    5    15     1 
    5    16     1 
    5    23     1 
    5    24     1 
    6     8     1 
    6     9     1 
    6    13     1 
    6    21     1 
    6    22     1 
    7    17     1 
    7    18     1 
    7    19     1 
    7    21     1 
    7    22     1 
    8    10     1 
    8    11     1 
    8    12     1 
    8    14     1 
    8    15     1 
    8    16     1 
    8    20     1 
    9    14     1 
    9    15     1 
    9    16     1 
    9    20     1 
   10    13     1 
   11    13     1 
   12    13     1 
   13    20     1 
   14    17     1 
   14    18     1 
   14    19     1 
   15    17     1 
   15    18     1 
   15    19     1 
   20    25     1 
   20    26     1 
   20    36     1 
   21    23     1 
   21    24     1 
   22    27     1 
   22    28     1 
   22    32     1 
   22    37     1 
   22    38     1 
   23    25     1 
   23    26     1 
   23    36     1 
   24    29     1 
   24    30     1 
   24    31     1 
   24    33     1 
   24    34     1 
   24    35     1 
   24    39     1 
   24    40     1 
   25    27     1 
   25    28     1 
   25    32     1 
   25    37     1 
   25    38     1 
   26    37     1 
   26    38     1 
   27    29     1 
   27    30     1 
   27    31     1 
   27    33     1 
   27    34     1 
   27    35     1 
   27    36     1 
   28    33     1 
   28    34     1 
   28    35     1 
   28    36     1 
   29    32     1 
   30    32     1 
   31    32     1 
   32    36     1 
   36    41     1 
   36    42     1 
   36    55     1 
   37    39     1 
   37    40     1 
   38    43     1 
   38    44     1 
   38    45     1 
   38    56     1 
   38    57     1 
   39    41     1 
   39    42     1 
   39    55     1 
   40    46     1 
   40    47     1 
   40    51     1 
   40    58     1 
   40    59     1 
   41    43     1 
   41    44     1 
   41    45     1 
   41    56     1 
   41    57     1 
   42    48     1 
   42    49     1 
   42    50     1 
   42    52     1 
   42    53     1 
   42    54     1 
   42    56     1 
   42    57     1 
   43    46     1 
   43    47     1 
   43    51     1 
   43    55     1 
   44    46     1 
   44    47     1 
   44    51     1 
   44    55     1 
   45    55     1 
   46    48     1 
   46    49     1 
   46    50     1 
   46    52     1 
   46    53     1 
   46    54     1 
   47    52     1 
   47    53     1 
   47    54     1 
   48    51     1 
   49    51     1 
   50    51     1 
   55    60     1 
   55    61     1 
   55    75     1 
   56    58     1 
   56    59     1 
   57    62     1 
   57    63     1 
   57    64     1 
   57    76     1 
   57    77     1 
   58    60     1 
   58    61     1 
   58    75     1 
   59    65     1 
   59    73     1 
   59    78     1 
   59    79     1 
   60    62     1 
   60    63     1 
   60    64     1 
   60    76     1 
   60    77     1 
   61    66     1 
   61    67     1 
   61    71     1 
   61    74     1 
   61    76     1 
   61    77     1 
   62    65     1 
   62    73     1 
   62    75     1 
   63    65     1 
   63    73     1 
   63    75     1 
   64    68     1 
   64    69     1 
   64    72     1 
   64    75     1 
   65    70     1 
   65    71     1 
   65    74     1 
   66    68     1 
   66    69     1 
   66    73     1 
   67    72     1 
   67    73     1 
   68    70     1 
   68    71     1 
   69    74     1 
   70    72     1 
   70    73     1 
   72    74     1 
   75    80     1 
   75    81     1 
   75    94     1 
   76    78     1 
   76    79     1 
   77    82     1 
   77    83     1 
   77    87     1 
   77    95     1 
   77    96     1 
   78    80     1 
   78    81     1 
   78    94     1 
   79    84     1 
   79    85     1 
   79    86     1 
   79    88     1 
   79    89     1 
   79    90     1 
   79    97     1 
   79    98     1 
   80    82     1 
   80    83     1 
   80    87     1 
   80    95     1 
   80    96     1 
   81    91     1 
   81    92     1 
   81    93     1 
   81    95     1 
   81    96     1 
   82    84     1 
   82    85     1 
   82    86     1 
   82    88     1 
   82    89     1 
   82    90     1 
   82    94     1 
   83    88     1 
   83    89     1 
   83    90     1 
   83    94     1 
   84    87     1 
   85    87     1 
   86    87     1 
   87    94     1 
   88    91     1 
   88    92     1 
   88    93     1 
   89    91     1 
   89    92     1 
   89    93     1 
   94    99     1 
   94   100     1 
   94   114     1 
   95    97     1 
   95    98     1 
   96   101     1 
   96   102     1 
   96   103     1 
   96   115     1 
   96   116     1 
   97    99     1 
   97   100     1 
   97   114     1 
   98   104     1 
   98   112     1 
   99   101     1 
   99   102     1 
   99   103     1 
   99   115     1 
   99   116     1 
  100   105     1 
  100   106     1 
  100   110     1 
  100   113     1 
  100   115     1 
  100   116     1 
  101   104     1 
  101   112     1 
  101   114     1 
  102   104     1 
  102   112     1 
  102   114     1 
  103   107     1 
  103   108     1 
  103   111     1 
  103   114     1 
  104   109     1 
  104   110     1 
  104   113     1 
  105   107     1 
  105   108     1 
  105   112     1 
  106   111     1 
  106   112     1 
  107   109     1 
  107   110     1 
  108   113     1 
  109   111     1 
  109   112     1 
  111   113     1 

[ angles ]
;  ai    aj    ak funct            c0            c1            c2            c3
    2     1     3     1 
    2     1     4     1 
    2     1     5     1 
    3     1     4     1 
    3     1     5     1 
    4     1     5     1 
    1     5     6     1 
    1     5     7     1 
    1     5    20     1 
    6     5     7     1 
    6     5    20     1 
    7     5    20     1 
    5     7     8     1 
    5     7     9     1 
    5     7    13     1 
    8     7     9     1 
    8     7    13     1 
    9     7    13     1 
    7     9    10     1 
    7     9    11     1 
    7     9    12     1 
   10     9    11     1 
   10     9    12     1 
   11     9    12     1 
    7    13    14     1 
    7    13    15     1 
    7    13    16     1 
   14    13    15     1 
   14    13    16     1 
   15    13    16     1 
   13    16    17     1 
   13    16    18     1 
   13    16    19     1 
   17    16    18     1 
   17    16    19     1 
   18    16    19     1 
    5    20    21     1 
    5    20    22     1 
   21    20    22     1 
   20    22    23     1 
   20    22    24     1 
   23    22    24     1 
   22    24    25     1 
   22    24    26     1 
   22    24    36     1 
   25    24    26     1 
   25    24    36     1 
   26    24    36     1 
   24    26    27     1 
   24    26    28     1 
   24    26    32     1 
   27    26    28     1 
   27    26    32     1 
   28    26    32     1 
   26    28    29     1 
   26    28    30     1 
   26    28    31     1 
   29    28    30     1 
   29    28    31     1 
   30    28    31     1 
   26    32    33     1 
   26    32    34     1 
   26    32    35     1 
   33    32    34     1 
   33    32    35     1 
   34    32    35     1 
   24    36    37     1 
   24    36    38     1 
   37    36    38     1 
   36    38    39     1 
   36    38    40     1 
   39    38    40     1 
   38    40    41     1 
   38    40    42     1 
   38    40    55     1 
   41    40    42     1 
   41    40    55     1 
   42    40    55     1 
   40    42    43     1 
   40    42    44     1 
   40    42    45     1 
   43    42    44     1 
   43    42    45     1 
   44    42    45     1 
   42    45    46     1 
   42    45    47     1 
   42    45    51     1 
   46    45    47     1 
   46    45    51     1 
   47    45    51     1 
   45    47    48     1 
   45    47    49     1 
   45    47    50     1 
   48    47    49     1 
   48    47    50     1 
   49    47    50     1 
   45    51    52     1 
   45    51    53     1 
   45    51    54     1 
   52    51    53     1 
   52    51    54     1 
   53    51    54     1 
   40    55    56     1 
   40    55    57     1 
   56    55    57     1 
   55    57    58     1 
   55    57    59     1 
   58    57    59     1 
   57    59    60     1 
   57    59    61     1 
   57    59    75     1 
   60    59    61     1 
   60    59    75     1 
   61    59    75     1 
   59    61    62     1 
   59    61    63     1 
   59    61    64     1 
   62    61    63     1 
   62    61    64     1 
   63    61    64     1 
   61    64    65     1 
   61    64    73     1 
   65    64    73     1 
   64    65    66     1 
   64    65    67     1 
   66    65    67     1 
   65    67    68     1 
   65    67    69     1 
   68    67    69     1 
   67    69    70     1 
   67    69    71     1 
   70    69    71     1 
   69    71    72     1 
   69    71    73     1 
   72    71    73     1 
   64    73    71     1 
   64    73    74     1 
   71    73    74     1 
   59    75    76     1 
   59    75    77     1 
   76    75    77     1 
   75    77    78     1 
   75    77    79     1 
   78    77    79     1 
   77    79    80     1 
   77    79    81     1 
   77    79    94     1 
   80    79    81     1 
   80    79    94     1 
   81    79    94     1 
   79    81    82     1 
   79    81    83     1 
   79    81    87     1 
   82    81    83     1 
   82    81    87     1 
   83    81    87     1 
   81    83    84     1 
   81    83    85     1 
   81    83    86     1 
   84    83    85     1 
   84    83    86     1 
   85    83    86     1 
   81    87    88     1 
   81    87    89     1 
   81    87    90     1 
   88    87    89     1 
   88    87    90     1 
   89    87    90     1 
   87    90    91     1 
   87    90    92     1 
   87    90    93     1 
   91    90    92     1 
   91    90    93     1 
   92    90    93     1 
   79    94    95     1 
   79    94    96     1 
   95    94    96     1 
   94    96    97     1 
   94    96    98     1 
   97    96    98     1 
   96    98    99     1 
   96    98   100     1 
   96    98   114     1 
   99    98   100     1 
   99    98   114     1 
  100    98   114     1 
   98   100   101     1 
   98   100   102     1 
   98   100   103     1 
  101   100   102     1 
  101   100   103     1 
  102   100   103     1 
  100   103   104     1 
  100   103   112     1 
  104   103   112     1 
  103   104   105     1 
  103   104   106     1 
  105   104   106     1 
  104   106   107     1 
  104   106   108     1 
  107   106   108     1 
  106   108   109     1 
  106   108   110     1 
  109   108   110     1 
  108   110   111     1 
  108   110   112     1 
  111   110   112     1 
  103   112   110     1 
  103   112   113     1 
  110   112   113     1 
   98   114   115     1 
   98   114   116     1 
  115   114   116     1 

[ dihedrals ]
;  ai    aj    ak    al funct            c0            c1            c2            c3            c4            c5
    2     1     5     6     9 
    2     1     5     7     9 
    2     1     5    20     9 
    3     1     5     6     9 
    3     1     5     7     9 
    3     1     5    20     9 
    4     1     5     6     9 
    4     1     5     7     9 
    4     1     5    20     9 
    1     5     7     9     9    torsion_ILE_N_CA_CB_CG2_mult1
    1     5     7     9     9    torsion_ILE_N_CA_CB_CG2_mult2
    1     5     7     8     9 
    1     5     7    13     9 
    6     5     7     8     9 
    6     5     7     9     9 
    6     5     7    13     9 
   20     5     7     8     9 
   20     5     7     9     9 
   20     5     7    13     9 
    1     5    20    21     9 
    1     5    20    22     9 
    6     5    20    21     9 
    6     5    20    22     9 
    7     5    20    21     9 
    7     5    20    22     9 
    5     7     9    10     9 
    5     7     9    11     9 
    5     7     9    12     9 
    8     7     9    10     9 
    8     7     9    11     9 
    8     7     9    12     9 
   13     7     9    10     9 
   13     7     9    11     9 
   13     7     9    12     9 
    5     7    13    14     9 
    5     7    13    15     9 
    5     7    13    16     9 
    8     7    13    14     9 
    8     7    13    15     9 
    8     7    13    16     9 
    9     7    13    14     9 
    9     7    13    15     9 
    9     7    13    16     9 
    7    13    16    17     9 
    7    13    16    18     9 
    7    13    16    19     9 
   14    13    16    17     9 
   14    13    16    18     9 
   14    13    16    19     9 
   15    13    16    17     9 
   15    13    16    18     9 
   15    13    16    19     9 
    5    20    22    23     9 
    5    20    22    24     9 
   21    20    22    23     9 
   21    20    22    24     9 
   20    22    24    25     9 
   20    22    24    26     9 
   20    22    24    36     9 
   23    22    24    25     9 
   23    22    24    26     9 
   23    22    24    36     9 
   22    24    26    27     9 
   22    24    26    28     9 
   22    24    26    32     9 
   25    24    26    27     9 
   25    24    26    28     9 
   25    24    26    32     9 
   36    24    26    27     9 
   36    24    26    28     9 
   36    24    26    32     9 
   22    24    36    37     9 
   22    24    36    38     9 
   25    24    36    37     9 
   25    24    36    38     9 
   26    24    36    37     9 
   26    24    36    38     9 
   24    26    28    29     9 
   24    26    28    30     9 
   24    26    28    31     9 
   27    26    28    29     9 
   27    26    28    30     9 
   27    26    28    31     9 
   32    26    28    29     9 
   32    26    28    30     9 
   32    26    28    31     9 
   24    26    32    33     9 
   24    26    32    34     9 
   24    26    32    35     9 
   27    26    32    33     9 
   27    26    32    34     9 
   27    26    32    35     9 
   28    26    32    33     9 
   28    26    32    34     9 
   28    26    32    35     9 
   24    36    38    39     9 
   24    36    38    40     9 
   37    36    38    39     9 
   37    36    38    40     9 
   36    38    40    41     9 
   36    38    40    42     9 
   36    38    40    55     9 
   39    38    40    41     9 
   39    38    40    42     9 
   39    38    40    55     9 
   55    40    42    45     9    torsion_LEU_C_CA_CB_CG_mult1
   55    40    42    45     9    torsion_LEU_C_CA_CB_CG_mult2
   55    40    42    45     9    torsion_LEU_C_CA_CB_CG_mult3
   38    40    42    43     9 
   38    40    42    44     9 
   38    40    42    45     9 
   41    40    42    43     9 
   41    40    42    44     9 
   41    40    42    45     9 
   55    40    42    43     9 
   55    40    42    44     9 
   38    40    55    56     9 
   38    40    55    57     9 
   41    40    55    56     9 
   41    40    55    57     9 
   42    40    55    56     9 
   42    40    55    57     9 
   40    42    45    46     9 
   40    42    45    47     9 
   40    42    45    51     9 
   43    42    45    46     9 
   43    42    45    47     9 
   43    42    45    51     9 
   44    42    45    46     9 
   44    42    45    47     9 
   44    42    45    51     9 
   42    45    47    48     9 
   42    45    47    49     9 
   42    45    47    50     9 
   46    45    47    48     9 
   46    45    47    49     9 
   46    45    47    50     9 
   51    45    47    48     9 
   51    45    47    49     9 
   51    45    47    50     9 
   42    45    51    52     9 
   42    45    51    53     9 
   42    45    51    54     9 
   46    45    51    52     9 
   46    45    51    53     9 
   46    45    51    54     9 
   47    45    51    52     9 
   47    45    51    53     9 
   47    45    51    54     9 
   40    55    57    58     9 
   40    55    57    59     9 
   56    55    57    58     9 
   56    55    57    59     9 
   55    57    59    60     9 
   55    57    59    61     9 
   55    57    59    75     9 
   58    57    59    60     9 
   58    57    59    61     9 
   58    57    59    75     9 
   57    59    61    62     9 
   57    59    61    63     9 
   57    59    61    64     9 
   60    59    61    62     9 
   60    59    61    63     9 
   60    59    61    64     9 
   75    59    61    62     9 
   75    59    61    63     9 
   75    59    61    64     9 
   57    59    75    76     9 
   57    59    75    77     9 
   60    59    75    76     9 
   60    59    75    77     9 
   61    59    75    76     9 
   61    59    75    77     9 
   59    61    64    65     9 
   59    61    64    73     9 
   62    61    64    65     9 
   62    61    64    73     9 
   63    61    64    65     9 
   63    61    64    73     9 
   61    64    65    66     9 
   61    64    65    67     9 
   73    64    65    66     9 
   73    64    65    67     9 
   61    64    73    71     9 
   61    64    73    74     9 
   65    64    73    71     9 
   65    64    73    74     9 
   64    65    67    68     9 
   64    65    67    69     9 
   66    65    67    68     9 
   66    65    67    69     9 
   65    67    69    70     9 
   65    67    69    71     9 
   68    67    69    70     9 
   68    67    69    71     9 
   67    69    71    72     9 
   67    69    71    73     9 
   70    69    71    72     9 
   70    69    71    73     9 
   69    71    73    64     9 
   69    71    73    74     9 
   72    71    73    64     9 
   72    71    73    74     9 
   59    75    77    78     9 
   59    75    77    79     9 
   76    75    77    78     9 
   76    75    77    79     9 
   75    77    79    80     9 
   75    77    79    81     9 
   75    77    79    94     9 
   78    77    79    80     9 
   78    77    79    81     9 
   78    77    79    94     9 
   77    79    81    83     9    torsion_ILE_N_CA_CB_CG2_mult1
   77    79    81    83     9    torsion_ILE_N_CA_CB_CG2_mult2
   77    79    81    82     9 
   77    79    81    87     9 
   80    79    81    82     9 
   80    79    81    83     9 
   80    79    81    87     9 
   94    79    81    82     9 
   94    79    81    83     9 
   94    79    81    87     9 
   77    79    94    95     9 
   77    79    94    96     9 
   80    79    94    95     9 
   80    79    94    96     9 
   81    79    94    95     9 
   81    79    94    96     9 
   79    81    83    84     9 
   79    81    83    85     9 
   79    81    83    86     9 
   82    81    83    84     9 
   82    81    83    85     9 
   82    81    83    86     9 
   87    81    83    84     9 
   87    81    83    85     9 
   87    81    83    86     9 
   79    81    87    88     9 
   79    81    87    89     9 
   79    81    87    90     9 
   82    81    87    88     9 
   82    81    87    89     9 
   82    81    87    90     9 
   83    81    87    88     9 
   83    81    87    89     9 
   83    81    87    90     9 
   81    87    90    91     9 
   81    87    90    92     9 
   81    87    90    93     9 
   88    87    90    91     9 
   88    87    90    92     9 
   88    87    90    93     9 
   89    87    90    91     9 
   89    87    90    92     9 
   89    87    90    93     9 
   79    94    96    97     9 
   79    94    96    98     9 
   95    94    96    97     9 
   95    94    96    98     9 
   94    96    98    99     9 
   94    96    98   100     9 
   94    96    98   114     9 
   97    96    98    99     9 
   97    96    98   100     9 
   97    96    98   114     9 
   96    98   100   101     9 
   96    98   100   102     9 
   96    98   100   103     9 
   99    98   100   101     9 
   99    98   100   102     9 
   99    98   100   103     9 
  114    98   100   101     9 
  114    98   100   102     9 
  114    98   100   103     9 
   96    98   114   115     9 
   96    98   114   116     9 
   99    98   114   115     9 
   99    98   114   116     9 
  100    98   114   115     9 
  100    98   114   116     9 
   98   100   103   104     9 
   98   100   103   112     9 
  101   100   103   104     9 
  101   100   103   112     9 
  102   100   103   104     9 
  102   100   103   112     9 
  100   103   104   105     9 
  100   103   104   106     9 
  112   103   104   105     9 
  112   103   104   106     9 
  100   103   112   110     9 
  100   103   112   113     9 
  104   103   112   110     9 
  104   103   112   113     9 
  103   104   106   107     9 
  103   104   106   108     9 
  105   104   106   107     9 
  105   104   106   108     9 
  104   106   108   109     9 
  104   106   108   110     9 
  107   106   108   109     9 
  107   106   108   110     9 
  106   108   110   111     9 
  106   108   110   112     9 
  109   108   110   111     9 
  109   108   110   112     9 
  108   110   112   103     9 
  108   110   112   113     9 
  111   110   112   103     9 
  111   110   112   113     9 

[ dihedrals ]
;  ai    aj    ak    al funct            c0            c1            c2            c3
    5    22    20    21     4 
   20    24    22    23     4 
   24    38    36    37     4 
   36    40    38    39     4 
   40    57    55    56     4 
   55    59    57    58     4 
   59    77    75    76     4 
   61    64    73    65     4 
   64    67    65    66     4 
   64    71    73    74     4 
   65    69    67    68     4 
   67    71    69    70     4 
   69    73    71    72     4 
   75    79    77    78     4 
   79    96    94    95     4 
   94    98    96    97     4 
   98   115   114   116     4 
  100   103   112   104     4 
  103   106   104   105     4 
  103   110   112   113     4 
  104   108   106   107     4 
  106   110   108   109     4 
  108   112   110   111     4 

; Include Position restraint file
#ifdef POSRES
#include "posre.itp"
#endif

; Include water topology
#include "amber99sb-ildn.ff/tip3p.itp"

#ifdef POSRES_WATER
; Position restraint for each water oxygen
[ position_restraints ]
;  i funct       fcx        fcy        fcz
   1    1       1000       1000       1000
#endif

; Include topology for ions
#include "amber99sb-ildn.ff/ions.itp"

[ system ]
; Name
UNNAMED in water

[ molecules ]
; Compound        #mols
Protein_chain_A     300
SOL             96959
