;
;	File 'topol.top' was generated
;	By user: go46vuw (4358430)
;	On host: TUMWMFM-GPU02
;	At date: Wed Dec 24 11:30:10 2025
;
;	This is a standalone topology file
;
;	Created by:
;	                    :-) GROMACS - gmx pdb2gmx, 2024.4 (-:
;	
;	Executable:   /home/go46vuw/Programs/gromacs/2024.4/install/bin/gmx_mpi
;	Data prefix:  /home/go46vuw/Programs/gromacs/2024.4/install
;	Working dir:  /home/go46vuw/vffif/amber99sb_ildn/top
;	Command line:
;	  gmx_mpi pdb2gmx -f ../coords/vffif.pdb -o ../coords/vffif.gro -water tip3p -ff amber99sb-ildn -ignh -ter
;	Force field was read from the standard GROMACS share directory.
;

; Include forcefield parameters
#include "amber99sb-ildn.ff/forcefield.itp"

[ moleculetype ]
; Name            nrexcl
Protein_chain_A     3

[ atoms ]
;   nr       type  resnr residue  atom   cgnr     charge       mass  typeB    chargeB      massB
; residue   1 VAL rtp NVAL q +1.0
     1         N3      1    VAL      N      1     0.0577      14.01
     2          H      1    VAL     H1      2     0.2272      1.008
     3          H      1    VAL     H2      3     0.2272      1.008
     4          H      1    VAL     H3      4     0.2272      1.008
     5         CT      1    VAL     CA      5    -0.0054      12.01
     6         HP      1    VAL     HA      6     0.1093      1.008
     7         CT      1    VAL     CB      7     0.3196      12.01
     8         HC      1    VAL     HB      8    -0.0221      1.008
     9         CT      1    VAL    CG1      9    -0.3129      12.01
    10         HC      1    VAL   HG11     10     0.0735      1.008
    11         HC      1    VAL   HG12     11     0.0735      1.008
    12         HC      1    VAL   HG13     12     0.0735      1.008
    13         CT      1    VAL    CG2     13    -0.3129      12.01
    14         HC      1    VAL   HG21     14     0.0735      1.008
    15         HC      1    VAL   HG22     15     0.0735      1.008
    16         HC      1    VAL   HG23     16     0.0735      1.008
    17          C      1    VAL      C     17     0.6163      12.01
    18          O      1    VAL      O     18    -0.5722         16   ; qtot 1
; residue   2 PHE rtp PHE  q  0.0
    19          N      2    PHE      N     19    -0.4157      14.01
    20          H      2    PHE      H     20     0.2719      1.008
    21         CT      2    PHE     CA     21    -0.0024      12.01
    22         H1      2    PHE     HA     22     0.0978      1.008
    23         CT      2    PHE     CB     23    -0.0343      12.01
    24         HC      2    PHE    HB1     24     0.0295      1.008
    25         HC      2    PHE    HB2     25     0.0295      1.008
    26         CA      2    PHE     CG     26     0.0118      12.01
    27         CA      2    PHE    CD1     27    -0.1256      12.01
    28         HA      2    PHE    HD1     28      0.133      1.008
    29         CA      2    PHE    CE1     29    -0.1704      12.01
    30         HA      2    PHE    HE1     30      0.143      1.008
    31         CA      2    PHE     CZ     31    -0.1072      12.01
    32         HA      2    PHE     HZ     32     0.1297      1.008
    33         CA      2    PHE    CE2     33    -0.1704      12.01
    34         HA      2    PHE    HE2     34      0.143      1.008
    35         CA      2    PHE    CD2     35    -0.1256      12.01
    36         HA      2    PHE    HD2     36      0.133      1.008
    37          C      2    PHE      C     37     0.5973      12.01
    38          O      2    PHE      O     38    -0.5679         16   ; qtot 1
; residue   3 PHE rtp PHE  q  0.0
    39          N      3    PHE      N     39    -0.4157      14.01
    40          H      3    PHE      H     40     0.2719      1.008
    41         CT      3    PHE     CA     41    -0.0024      12.01
    42         H1      3    PHE     HA     42     0.0978      1.008
    43         CT      3    PHE     CB     43    -0.0343      12.01
    44         HC      3    PHE    HB1     44     0.0295      1.008
    45         HC      3    PHE    HB2     45     0.0295      1.008
    46         CA      3    PHE     CG     46     0.0118      12.01
    47         CA      3    PHE    CD1     47    -0.1256      12.01
    48         HA      3    PHE    HD1     48      0.133      1.008
    49         CA      3    PHE    CE1     49    -0.1704      12.01
    50         HA      3    PHE    HE1     50      0.143      1.008
    51         CA      3    PHE     CZ     51    -0.1072      12.01
    52         HA      3    PHE     HZ     52     0.1297      1.008
    53         CA      3    PHE    CE2     53    -0.1704      12.01
    54         HA      3    PHE    HE2     54      0.143      1.008
    55         CA      3    PHE    CD2     55    -0.1256      12.01
    56         HA      3    PHE    HD2     56      0.133      1.008
    57          C      3    PHE      C     57     0.5973      12.01
    58          O      3    PHE      O     58    -0.5679         16   ; qtot 1
; residue   4 ILE rtp ILE  q  0.0
    59          N      4    ILE      N     59    -0.4157      14.01
    60          H      4    ILE      H     60     0.2719      1.008
    61         CT      4    ILE     CA     61    -0.0597      12.01
    62         H1      4    ILE     HA     62     0.0869      1.008
    63         CT      4    ILE     CB     63     0.1303      12.01
    64         HC      4    ILE     HB     64     0.0187      1.008
    65         CT      4    ILE    CG2     65    -0.3204      12.01
    66         HC      4    ILE   HG21     66     0.0882      1.008
    67         HC      4    ILE   HG22     67     0.0882      1.008
    68         HC      4    ILE   HG23     68     0.0882      1.008
    69         CT      4    ILE    CG1     69     -0.043      12.01
    70         HC      4    ILE   HG11     70     0.0236      1.008
    71         HC      4    ILE   HG12     71     0.0236      1.008
    72         CT      4    ILE     CD     72     -0.066      12.01
    73         HC      4    ILE    HD1     73     0.0186      1.008
    74         HC      4    ILE    HD2     74     0.0186      1.008
    75         HC      4    ILE    HD3     75     0.0186      1.008
    76          C      4    ILE      C     76     0.5973      12.01
    77          O      4    ILE      O     77    -0.5679         16   ; qtot 1
; residue   5 PHE rtp CPHE q -1.0
    78          N      5    PHE      N     78    -0.3821      14.01
    79          H      5    PHE      H     79     0.2681      1.008
    80         CT      5    PHE     CA     80    -0.1825      12.01
    81         H1      5    PHE     HA     81     0.1098      1.008
    82         CT      5    PHE     CB     82    -0.0959      12.01
    83         HC      5    PHE    HB1     83     0.0443      1.008
    84         HC      5    PHE    HB2     84     0.0443      1.008
    85         CA      5    PHE     CG     85     0.0552      12.01
    86         CA      5    PHE    CD1     86      -0.13      12.01
    87         HA      5    PHE    HD1     87     0.1408      1.008
    88         CA      5    PHE    CE1     88    -0.1847      12.01
    89         HA      5    PHE    HE1     89     0.1461      1.008
    90         CA      5    PHE     CZ     90    -0.0944      12.01
    91         HA      5    PHE     HZ     91      0.128      1.008
    92         CA      5    PHE    CE2     92    -0.1847      12.01
    93         HA      5    PHE    HE2     93     0.1461      1.008
    94         CA      5    PHE    CD2     94      -0.13      12.01
    95         HA      5    PHE    HD2     95     0.1408      1.008
    96          C      5    PHE      C     96      0.766      12.01
    97         O2      5    PHE    OC1     97    -0.8026         16
    98         O2      5    PHE    OC2     98    -0.8026         16   ; qtot 0

[ bonds ]
;  ai    aj funct            c0            c1            c2            c3
    1     2     1 
    1     3     1 
    1     4     1 
    1     5     1 
    5     6     1 
    5     7     1 
    5    17     1 
    7     8     1 
    7     9     1 
    7    13     1 
    9    10     1 
    9    11     1 
    9    12     1 
   13    14     1 
   13    15     1 
   13    16     1 
   17    18     1 
   17    19     1 
   19    20     1 
   19    21     1 
   21    22     1 
   21    23     1 
   21    37     1 
   23    24     1 
   23    25     1 
   23    26     1 
   26    27     1 
   26    35     1 
   27    28     1 
   27    29     1 
   29    30     1 
   29    31     1 
   31    32     1 
   31    33     1 
   33    34     1 
   33    35     1 
   35    36     1 
   37    38     1 
   37    39     1 
   39    40     1 
   39    41     1 
   41    42     1 
   41    43     1 
   41    57     1 
   43    44     1 
   43    45     1 
   43    46     1 
   46    47     1 
   46    55     1 
   47    48     1 
   47    49     1 
   49    50     1 
   49    51     1 
   51    52     1 
   51    53     1 
   53    54     1 
   53    55     1 
   55    56     1 
   57    58     1 
   57    59     1 
   59    60     1 
   59    61     1 
   61    62     1 
   61    63     1 
   61    76     1 
   63    64     1 
   63    65     1 
   63    69     1 
   65    66     1 
   65    67     1 
   65    68     1 
   69    70     1 
   69    71     1 
   69    72     1 
   72    73     1 
   72    74     1 
   72    75     1 
   76    77     1 
   76    78     1 
   78    79     1 
   78    80     1 
   80    81     1 
   80    82     1 
   80    96     1 
   82    83     1 
   82    84     1 
   82    85     1 
   85    86     1 
   85    94     1 
   86    87     1 
   86    88     1 
   88    89     1 
   88    90     1 
   90    91     1 
   90    92     1 
   92    93     1 
   92    94     1 
   94    95     1 
   96    97     1 
   96    98     1 

[ pairs ]
;  ai    aj funct            c0            c1            c2            c3
    1     8     1 
    1     9     1 
    1    13     1 
    1    18     1 
    1    19     1 
    2     6     1 
    2     7     1 
    2    17     1 
    3     6     1 
    3     7     1 
    3    17     1 
    4     6     1 
    4     7     1 
    4    17     1 
    5    10     1 
    5    11     1 
    5    12     1 
    5    14     1 
    5    15     1 
    5    16     1 
    5    20     1 
    5    21     1 
    6     8     1 
    6     9     1 
    6    13     1 
    6    18     1 
    6    19     1 
    7    18     1 
    7    19     1 
    8    10     1 
    8    11     1 
    8    12     1 
    8    14     1 
    8    15     1 
    8    16     1 
    8    17     1 
    9    14     1 
    9    15     1 
    9    16     1 
    9    17     1 
   10    13     1 
   11    13     1 
   12    13     1 
   13    17     1 
   17    22     1 
   17    23     1 
   17    37     1 
   18    20     1 
   18    21     1 
   19    24     1 
   19    25     1 
   19    26     1 
   19    38     1 
   19    39     1 
   20    22     1 
   20    23     1 
   20    37     1 
   21    27     1 
   21    35     1 
   21    40     1 
   21    41     1 
   22    24     1 
   22    25     1 
   22    26     1 
   22    38     1 
   22    39     1 
   23    28     1 
   23    29     1 
   23    33     1 
   23    36     1 
   23    38     1 
   23    39     1 
   24    27     1 
   24    35     1 
   24    37     1 
   25    27     1 
   25    35     1 
   25    37     1 
   26    30     1 
   26    31     1 
   26    34     1 
   26    37     1 
   27    32     1 
   27    33     1 
   27    36     1 
   28    30     1 
   28    31     1 
   28    35     1 
   29    34     1 
   29    35     1 
   30    32     1 
   30    33     1 
   31    36     1 
   32    34     1 
   32    35     1 
   34    36     1 
   37    42     1 
   37    43     1 
   37    57     1 
   38    40     1 
   38    41     1 
   39    44     1 
   39    45     1 
   39    46     1 
   39    58     1 
   39    59     1 
   40    42     1 
   40    43     1 
   40    57     1 
   41    47     1 
   41    55     1 
   41    60     1 
   41    61     1 
   42    44     1 
   42    45     1 
   42    46     1 
   42    58     1 
   42    59     1 
   43    48     1 
   43    49     1 
   43    53     1 
   43    56     1 
   43    58     1 
   43    59     1 
   44    47     1 
   44    55     1 
   44    57     1 
   45    47     1 
   45    55     1 
   45    57     1 
   46    50     1 
   46    51     1 
   46    54     1 
   46    57     1 
   47    52     1 
   47    53     1 
   47    56     1 
   48    50     1 
   48    51     1 
   48    55     1 
   49    54     1 
   49    55     1 
   50    52     1 
   50    53     1 
   51    56     1 
   52    54     1 
   52    55     1 
   54    56     1 
   57    62     1 
   57    63     1 
   57    76     1 
   58    60     1 
   58    61     1 
   59    64     1 
   59    65     1 
   59    69     1 
   59    77     1 
   59    78     1 
   60    62     1 
   60    63     1 
   60    76     1 
   61    66     1 
   61    67     1 
   61    68     1 
   61    70     1 
   61    71     1 
   61    72     1 
   61    79     1 
   61    80     1 
   62    64     1 
   62    65     1 
   62    69     1 
   62    77     1 
   62    78     1 
   63    73     1 
   63    74     1 
   63    75     1 
   63    77     1 
   63    78     1 
   64    66     1 
   64    67     1 
   64    68     1 
   64    70     1 
   64    71     1 
   64    72     1 
   64    76     1 
   65    70     1 
   65    71     1 
   65    72     1 
   65    76     1 
   66    69     1 
   67    69     1 
   68    69     1 
   69    76     1 
   70    73     1 
   70    74     1 
   70    75     1 
   71    73     1 
   71    74     1 
   71    75     1 
   76    81     1 
   76    82     1 
   76    96     1 
   77    79     1 
   77    80     1 
   78    83     1 
   78    84     1 
   78    85     1 
   78    97     1 
   78    98     1 
   79    81     1 
   79    82     1 
   79    96     1 
   80    86     1 
   80    94     1 
   81    83     1 
   81    84     1 
   81    85     1 
   81    97     1 
   81    98     1 
   82    87     1 
   82    88     1 
   82    92     1 
   82    95     1 
   82    97     1 
   82    98     1 
   83    86     1 
   83    94     1 
   83    96     1 
   84    86     1 
   84    94     1 
   84    96     1 
   85    89     1 
   85    90     1 
   85    93     1 
   85    96     1 
   86    91     1 
   86    92     1 
   86    95     1 
   87    89     1 
   87    90     1 
   87    94     1 
   88    93     1 
   88    94     1 
   89    91     1 
   89    92     1 
   90    95     1 
   91    93     1 
   91    94     1 
   93    95     1 

[ angles ]
;  ai    aj    ak funct            c0            c1            c2            c3
    2     1     3     1 
    2     1     4     1 
    2     1     5     1 
    3     1     4     1 
    3     1     5     1 
    4     1     5     1 
    1     5     6     1 
    1     5     7     1 
    1     5    17     1 
    6     5     7     1 
    6     5    17     1 
    7     5    17     1 
    5     7     8     1 
    5     7     9     1 
    5     7    13     1 
    8     7     9     1 
    8     7    13     1 
    9     7    13     1 
    7     9    10     1 
    7     9    11     1 
    7     9    12     1 
   10     9    11     1 
   10     9    12     1 
   11     9    12     1 
    7    13    14     1 
    7    13    15     1 
    7    13    16     1 
   14    13    15     1 
   14    13    16     1 
   15    13    16     1 
    5    17    18     1 
    5    17    19     1 
   18    17    19     1 
   17    19    20     1 
   17    19    21     1 
   20    19    21     1 
   19    21    22     1 
   19    21    23     1 
   19    21    37     1 
   22    21    23     1 
   22    21    37     1 
   23    21    37     1 
   21    23    24     1 
   21    23    25     1 
   21    23    26     1 
   24    23    25     1 
   24    23    26     1 
   25    23    26     1 
   23    26    27     1 
   23    26    35     1 
   27    26    35     1 
   26    27    28     1 
   26    27    29     1 
   28    27    29     1 
   27    29    30     1 
   27    29    31     1 
   30    29    31     1 
   29    31    32     1 
   29    31    33     1 
   32    31    33     1 
   31    33    34     1 
   31    33    35     1 
   34    33    35     1 
   26    35    33     1 
   26    35    36     1 
   33    35    36     1 
   21    37    38     1 
   21    37    39     1 
   38    37    39     1 
   37    39    40     1 
   37    39    41     1 
   40    39    41     1 
   39    41    42     1 
   39    41    43     1 
   39    41    57     1 
   42    41    43     1 
   42    41    57     1 
   43    41    57     1 
   41    43    44     1 
   41    43    45     1 
   41    43    46     1 
   44    43    45     1 
   44    43    46     1 
   45    43    46     1 
   43    46    47     1 
   43    46    55     1 
   47    46    55     1 
   46    47    48     1 
   46    47    49     1 
   48    47    49     1 
   47    49    50     1 
   47    49    51     1 
   50    49    51     1 
   49    51    52     1 
   49    51    53     1 
   52    51    53     1 
   51    53    54     1 
   51    53    55     1 
   54    53    55     1 
   46    55    53     1 
   46    55    56     1 
   53    55    56     1 
   41    57    58     1 
   41    57    59     1 
   58    57    59     1 
   57    59    60     1 
   57    59    61     1 
   60    59    61     1 
   59    61    62     1 
   59    61    63     1 
   59    61    76     1 
   62    61    63     1 
   62    61    76     1 
   63    61    76     1 
   61    63    64     1 
   61    63    65     1 
   61    63    69     1 
   64    63    65     1 
   64    63    69     1 
   65    63    69     1 
   63    65    66     1 
   63    65    67     1 
   63    65    68     1 
   66    65    67     1 
   66    65    68     1 
   67    65    68     1 
   63    69    70     1 
   63    69    71     1 
   63    69    72     1 
   70    69    71     1 
   70    69    72     1 
   71    69    72     1 
   69    72    73     1 
   69    72    74     1 
   69    72    75     1 
   73    72    74     1 
   73    72    75     1 
   74    72    75     1 
   61    76    77     1 
   61    76    78     1 
   77    76    78     1 
   76    78    79     1 
   76    78    80     1 
   79    78    80     1 
   78    80    81     1 
   78    80    82     1 
   78    80    96     1 
   81    80    82     1 
   81    80    96     1 
   82    80    96     1 
   80    82    83     1 
   80    82    84     1 
   80    82    85     1 
   83    82    84     1 
   83    82    85     1 
   84    82    85     1 
   82    85    86     1 
   82    85    94     1 
   86    85    94     1 
   85    86    87     1 
   85    86    88     1 
   87    86    88     1 
   86    88    89     1 
   86    88    90     1 
   89    88    90     1 
   88    90    91     1 
   88    90    92     1 
   91    90    92     1 
   90    92    93     1 
   90    92    94     1 
   93    92    94     1 
   85    94    92     1 
   85    94    95     1 
   92    94    95     1 
   80    96    97     1 
   80    96    98     1 
   97    96    98     1 

[ dihedrals ]
;  ai    aj    ak    al funct            c0            c1            c2            c3            c4            c5
    2     1     5     6     9 
    2     1     5     7     9 
    2     1     5    17     9 
    3     1     5     6     9 
    3     1     5     7     9 
    3     1     5    17     9 
    4     1     5     6     9 
    4     1     5     7     9 
    4     1     5    17     9 
    1     5     7     8     9 
    1     5     7     9     9 
    1     5     7    13     9 
    6     5     7     8     9 
    6     5     7     9     9 
    6     5     7    13     9 
   17     5     7     8     9 
   17     5     7     9     9 
   17     5     7    13     9 
    1     5    17    18     9 
    1     5    17    19     9 
    6     5    17    18     9 
    6     5    17    19     9 
    7     5    17    18     9 
    7     5    17    19     9 
    5     7     9    10     9 
    5     7     9    11     9 
    5     7     9    12     9 
    8     7     9    10     9 
    8     7     9    11     9 
    8     7     9    12     9 
   13     7     9    10     9 
   13     7     9    11     9 
   13     7     9    12     9 
    5     7    13    14     9 
    5     7    13    15     9 
    5     7    13    16     9 
    8     7    13    14     9 
    8     7    13    15     9 
    8     7    13    16     9 
    9     7    13    14     9 
    9     7    13    15     9 
    9     7    13    16     9 
    5    17    19    20     9 
    5    17    19    21     9 
   18    17    19    20     9 
   18    17    19    21     9 
   17    19    21    22     9 
   17    19    21    23     9 
   17    19    21    37     9 
   20    19    21    22     9 
   20    19    21    23     9 
   20    19    21    37     9 
   19    21    23    24     9 
   19    21    23    25     9 
   19    21    23    26     9 
   22    21    23    24     9 
   22    21    23    25     9 
   22    21    23    26     9 
   37    21    23    24     9 
   37    21    23    25     9 
   37    21    23    26     9 
   19    21    37    38     9 
   19    21    37    39     9 
   22    21    37    38     9 
   22    21    37    39     9 
   23    21    37    38     9 
   23    21    37    39     9 
   21    23    26    27     9 
   21    23    26    35     9 
   24    23    26    27     9 
   24    23    26    35     9 
   25    23    26    27     9 
   25    23    26    35     9 
   23    26    27    28     9 
   23    26    27    29     9 
   35    26    27    28     9 
   35    26    27    29     9 
   23    26    35    33     9 
   23    26    35    36     9 
   27    26    35    33     9 
   27    26    35    36     9 
   26    27    29    30     9 
   26    27    29    31     9 
   28    27    29    30     9 
   28    27    29    31     9 
   27    29    31    32     9 
   27    29    31    33     9 
   30    29    31    32     9 
   30    29    31    33     9 
   29    31    33    34     9 
   29    31    33    35     9 
   32    31    33    34     9 
   32    31    33    35     9 
   31    33    35    26     9 
   31    33    35    36     9 
   34    33    35    26     9 
   34    33    35    36     9 
   21    37    39    40     9 
   21    37    39    41     9 
   38    37    39    40     9 
   38    37    39    41     9 
   37    39    41    42     9 
   37    39    41    43     9 
   37    39    41    57     9 
   40    39    41    42     9 
   40    39    41    43     9 
   40    39    41    57     9 
   39    41    43    44     9 
   39    41    43    45     9 
   39    41    43    46     9 
   42    41    43    44     9 
   42    41    43    45     9 
   42    41    43    46     9 
   57    41    43    44     9 
   57    41    43    45     9 
   57    41    43    46     9 
   39    41    57    58     9 
   39    41    57    59     9 
   42    41    57    58     9 
   42    41    57    59     9 
   43    41    57    58     9 
   43    41    57    59     9 
   41    43    46    47     9 
   41    43    46    55     9 
   44    43    46    47     9 
   44    43    46    55     9 
   45    43    46    47     9 
   45    43    46    55     9 
   43    46    47    48     9 
   43    46    47    49     9 
   55    46    47    48     9 
   55    46    47    49     9 
   43    46    55    53     9 
   43    46    55    56     9 
   47    46    55    53     9 
   47    46    55    56     9 
   46    47    49    50     9 
   46    47    49    51     9 
   48    47    49    50     9 
   48    47    49    51     9 
   47    49    51    52     9 
   47    49    51    53     9 
   50    49    51    52     9 
   50    49    51    53     9 
   49    51    53    54     9 
   49    51    53    55     9 
   52    51    53    54     9 
   52    51    53    55     9 
   51    53    55    46     9 
   51    53    55    56     9 
   54    53    55    46     9 
   54    53    55    56     9 
   41    57    59    60     9 
   41    57    59    61     9 
   58    57    59    60     9 
   58    57    59    61     9 
   57    59    61    62     9 
   57    59    61    63     9 
   57    59    61    76     9 
   60    59    61    62     9 
   60    59    61    63     9 
   60    59    61    76     9 
   59    61    63    65     9    torsion_ILE_N_CA_CB_CG2_mult1
   59    61    63    65     9    torsion_ILE_N_CA_CB_CG2_mult2
   59    61    63    64     9 
   59    61    63    69     9 
   62    61    63    64     9 
   62    61    63    65     9 
   62    61    63    69     9 
   76    61    63    64     9 
   76    61    63    65     9 
   76    61    63    69     9 
   59    61    76    77     9 
   59    61    76    78     9 
   62    61    76    77     9 
   62    61    76    78     9 
   63    61    76    77     9 
   63    61    76    78     9 
   61    63    65    66     9 
   61    63    65    67     9 
   61    63    65    68     9 
   64    63    65    66     9 
   64    63    65    67     9 
   64    63    65    68     9 
   69    63    65    66     9 
   69    63    65    67     9 
   69    63    65    68     9 
   61    63    69    70     9 
   61    63    69    71     9 
   61    63    69    72     9 
   64    63    69    70     9 
   64    63    69    71     9 
   64    63    69    72     9 
   65    63    69    70     9 
   65    63    69    71     9 
   65    63    69    72     9 
   63    69    72    73     9 
   63    69    72    74     9 
   63    69    72    75     9 
   70    69    72    73     9 
   70    69    72    74     9 
   70    69    72    75     9 
   71    69    72    73     9 
   71    69    72    74     9 
   71    69    72    75     9 
   61    76    78    79     9 
   61    76    78    80     9 
   77    76    78    79     9 
   77    76    78    80     9 
   76    78    80    81     9 
   76    78    80    82     9 
   76    78    80    96     9 
   79    78    80    81     9 
   79    78    80    82     9 
   79    78    80    96     9 
   78    80    82    83     9 
   78    80    82    84     9 
   78    80    82    85     9 
   81    80    82    83     9 
   81    80    82    84     9 
   81    80    82    85     9 
   96    80    82    83     9 
   96    80    82    84     9 
   96    80    82    85     9 
   78    80    96    97     9 
   78    80    96    98     9 
   81    80    96    97     9 
   81    80    96    98     9 
   82    80    96    97     9 
   82    80    96    98     9 
   80    82    85    86     9 
   80    82    85    94     9 
   83    82    85    86     9 
   83    82    85    94     9 
   84    82    85    86     9 
   84    82    85    94     9 
   82    85    86    87     9 
   82    85    86    88     9 
   94    85    86    87     9 
   94    85    86    88     9 
   82    85    94    92     9 
   82    85    94    95     9 
   86    85    94    92     9 
   86    85    94    95     9 
   85    86    88    89     9 
   85    86    88    90     9 
   87    86    88    89     9 
   87    86    88    90     9 
   86    88    90    91     9 
   86    88    90    92     9 
   89    88    90    91     9 
   89    88    90    92     9 
   88    90    92    93     9 
   88    90    92    94     9 
   91    90    92    93     9 
   91    90    92    94     9 
   90    92    94    85     9 
   90    92    94    95     9 
   93    92    94    85     9 
   93    92    94    95     9 

[ dihedrals ]
;  ai    aj    ak    al funct            c0            c1            c2            c3
    5    19    17    18     4 
   17    21    19    20     4 
   21    39    37    38     4 
   23    26    35    27     4 
   26    29    27    28     4 
   26    33    35    36     4 
   27    31    29    30     4 
   29    33    31    32     4 
   31    35    33    34     4 
   37    41    39    40     4 
   41    59    57    58     4 
   43    46    55    47     4 
   46    49    47    48     4 
   46    53    55    56     4 
   47    51    49    50     4 
   49    53    51    52     4 
   51    55    53    54     4 
   57    61    59    60     4 
   61    78    76    77     4 
   76    80    78    79     4 
   80    97    96    98     4 
   82    85    94    86     4 
   85    88    86    87     4 
   85    92    94    95     4 
   86    90    88    89     4 
   88    92    90    91     4 
   90    94    92    93     4 

; Include Position restraint file
#ifdef POSRES
#include "posre.itp"
#endif

; Include water topology
#include "amber99sb-ildn.ff/tip3p.itp"

#ifdef POSRES_WATER
; Position restraint for each water oxygen
[ position_restraints ]
;  i funct       fcx        fcy        fcz
   1    1       1000       1000       1000
#endif

; Include topology for ions
#include "amber99sb-ildn.ff/ions.itp"

[ system ]
; Name
UNNAMED in water

[ molecules ]
; Compound        #mols
Protein_chain_A     300
SOL             98429
