UNNAMED
  116
    1ILE      N    1   6.624   7.473   6.828
    1ILE     H1    2   6.594   7.397   6.885
    1ILE     H2    3   6.579   7.557   6.858
    1ILE     H3    4   6.600   7.455   6.732
    1ILE     CA    5   6.771   7.489   6.839
    1ILE     HA    6   6.812   7.406   6.802
    1ILE     CB    7   6.824   7.606   6.752
    1ILE     HB    8   6.784   7.596   6.661
    1ILE    CG2    9   6.778   7.743   6.804
    1ILE   HG21   10   6.814   7.815   6.745
    1ILE   HG22   11   6.678   7.747   6.804
    1ILE   HG23   12   6.811   7.756   6.898
    1ILE    CG1   13   6.977   7.600   6.738
    1ILE   HG11   14   7.004   7.506   6.717
    1ILE   HG12   15   7.019   7.629   6.824
    1ILE     CD   16   7.031   7.690   6.627
    1ILE    HD1   17   7.131   7.681   6.623
    1ILE    HD2   18   6.991   7.662   6.539
    1ILE    HD3   19   7.007   7.785   6.646
    1ILE      C   20   6.807   7.505   6.989
    1ILE      O   21   6.729   7.554   7.071
    2VAL      N   22   6.933   7.462   7.024
    2VAL      H   23   6.993   7.427   6.952
    2VAL     CA   24   6.984   7.467   7.161
    2VAL     HA   25   6.954   7.552   7.204
    2VAL     CB   26   6.923   7.352   7.245
    2VAL     HB   27   6.825   7.354   7.227
    2VAL    CG1   28   6.942   7.371   7.395
    2VAL   HG11   29   6.901   7.295   7.444
    2VAL   HG12   30   7.040   7.376   7.416
    2VAL   HG13   31   6.898   7.456   7.423
    2VAL    CG2   32   6.975   7.214   7.202
    2VAL   HG21   33   6.932   7.143   7.259
    2VAL   HG22   34   6.951   7.198   7.106
    2VAL   HG23   35   7.074   7.211   7.213
    2VAL      C   36   7.138   7.462   7.151
    2VAL      O   37   7.196   7.424   7.049
    3LEU      N   38   7.207   7.501   7.264
    3LEU      H   39   7.154   7.530   7.343
    3LEU     CA   40   7.353   7.502   7.272
    3LEU     HA   41   7.392   7.422   7.228
    3LEU     CB   42   7.409   7.625   7.198
    3LEU    HB1   43   7.395   7.704   7.258
    3LEU    HB2   44   7.353   7.637   7.115
    3LEU     CG   45   7.557   7.627   7.154
    3LEU     HG   46   7.559   7.691   7.077
    3LEU    CD1   47   7.607   7.494   7.099
    3LEU   HD11   48   7.703   7.503   7.073
    3LEU   HD12   49   7.598   7.423   7.169
    3LEU   HD13   50   7.553   7.468   7.019
    3LEU    CD2   51   7.651   7.683   7.260
    3LEU   HD21   52   7.745   7.681   7.225
    3LEU   HD22   53   7.626   7.777   7.282
    3LEU   HD23   54   7.645   7.626   7.343
    3LEU      C   55   7.385   7.505   7.423
    3LEU      O   56   7.305   7.550   7.506
    4PHE      N   57   7.508   7.457   7.460
    4PHE      H   58   7.568   7.418   7.389
    4PHE     CA   59   7.556   7.460   7.599
    4PHE     HA   60   7.523   7.545   7.640
    4PHE     CB   61   7.498   7.343   7.679
    4PHE    HB1   62   7.555   7.262   7.665
    4PHE    HB2   63   7.405   7.323   7.647
    4PHE     CG   64   7.491   7.370   7.828
    4PHE    CD1   65   7.392   7.455   7.879
    4PHE    HD1   66   7.326   7.497   7.816
    4PHE    CE1   67   7.385   7.482   8.015
    4PHE    HE1   68   7.314   7.542   8.051
    4PHE     CZ   69   7.477   7.424   8.102
    4PHE     HZ   70   7.472   7.443   8.200
    4PHE    CE2   71   7.576   7.339   8.053
    4PHE    HE2   72   7.642   7.298   8.115
    4PHE    CD2   73   7.583   7.312   7.916
    4PHE    HD2   74   7.654   7.251   7.881
    4PHE      C   75   7.710   7.452   7.595
    4PHE      O   76   7.770   7.408   7.496
    5ILE      N   77   7.775   7.495   7.707
    5ILE      H   78   7.719   7.527   7.785
    5ILE     CA   79   7.921   7.498   7.721
    5ILE     HA   80   7.958   7.414   7.680
    5ILE     CB   81   7.983   7.615   7.640
    5ILE     HB   82   7.946   7.610   7.547
    5ILE    CG2   83   7.943   7.751   7.697
    5ILE   HG21   84   7.985   7.824   7.642
    5ILE   HG22   85   7.843   7.761   7.694
    5ILE   HG23   86   7.974   7.759   7.792
    5ILE    CG1   87   8.136   7.602   7.628
    5ILE   HG11   88   8.159   7.507   7.607
    5ILE   HG12   89   8.178   7.628   7.715
    5ILE     CD   90   8.196   7.689   7.518
    5ILE    HD1   91   8.295   7.677   7.515
    5ILE    HD2   92   8.156   7.664   7.430
    5ILE    HD3   93   8.175   7.785   7.537
    5ILE      C   94   7.952   7.503   7.872
    5ILE      O   95   7.868   7.538   7.955
    6PHE      N   96   8.079   7.467   7.909
    6PHE      H   97   8.143   7.437   7.838
    6PHE     CA   98   8.124   7.471   8.049
    6PHE     HA   99   8.084   7.552   8.091
    6PHE     CB  100   8.074   7.348   8.126
    6PHE    HB1  101   8.137   7.272   8.110
    6PHE    HB2  102   7.983   7.323   8.092
    6PHE     CG  103   8.065   7.372   8.274
    6PHE    CD1  104   7.965   7.456   8.325
    6PHE    HD1  105   7.899   7.499   8.263
    6PHE    CE1  106   7.957   7.481   8.462
    6PHE    HE1  107   7.885   7.541   8.498
    6PHE     CZ  108   8.048   7.422   8.550
    6PHE     HZ  109   8.042   7.440   8.648
    6PHE    CE2  110   8.147   7.337   8.500
    6PHE    HE2  111   8.212   7.295   8.562
    6PHE    CD2  112   8.155   7.312   8.363
    6PHE    HD2  113   8.226   7.251   8.328
    6PHE      C  114   8.277   7.477   8.048
    6PHE    OC1  115   8.333   7.512   8.166
    6PHE    OC2  116   8.344   7.452   7.949
  15.00000  15.00000  15.00000
