UNNAMED
  116
    1ILE      N    1   0.003  -0.012  -0.010
    1ILE     H1    2  -0.027  -0.088   0.047
    1ILE     H2    3  -0.042   0.072   0.020
    1ILE     H3    4  -0.021  -0.030  -0.106
    1ILE     CA    5   0.150   0.004   0.001
    1ILE     HA    6   0.191  -0.079  -0.036
    1ILE     CB    7   0.203   0.121  -0.086
    1ILE     HB    8   0.163   0.111  -0.177
    1ILE    CG2    9   0.157   0.258  -0.034
    1ILE   HG21   10   0.193   0.330  -0.093
    1ILE   HG22   11   0.057   0.262  -0.034
    1ILE   HG23   12   0.190   0.271   0.060
    1ILE    CG1   13   0.356   0.115  -0.100
    1ILE   HG11   14   0.383   0.021  -0.121
    1ILE   HG12   15   0.398   0.144  -0.014
    1ILE     CD   16   0.410   0.205  -0.211
    1ILE    HD1   17   0.510   0.196  -0.215
    1ILE    HD2   18   0.370   0.177  -0.299
    1ILE    HD3   19   0.386   0.300  -0.192
    1ILE      C   20   0.186   0.020   0.151
    1ILE      O   21   0.108   0.069   0.233
    2VAL      N   22   0.312  -0.023   0.186
    2VAL      H   23   0.372  -0.058   0.114
    2VAL     CA   24   0.363  -0.018   0.323
    2VAL     HA   25   0.333   0.067   0.366
    2VAL     CB   26   0.302  -0.133   0.407
    2VAL     HB   27   0.204  -0.131   0.389
    2VAL    CG1   28   0.321  -0.114   0.557
    2VAL   HG11   29   0.280  -0.190   0.606
    2VAL   HG12   30   0.419  -0.109   0.578
    2VAL   HG13   31   0.277  -0.029   0.585
    2VAL    CG2   32   0.354  -0.271   0.364
    2VAL   HG21   33   0.311  -0.342   0.421
    2VAL   HG22   34   0.330  -0.287   0.268
    2VAL   HG23   35   0.453  -0.274   0.375
    2VAL      C   36   0.517  -0.023   0.313
    2VAL      O   37   0.575  -0.061   0.211
    3LEU      N   38   0.586   0.016   0.426
    3LEU      H   39   0.533   0.045   0.505
    3LEU     CA   40   0.732   0.017   0.434
    3LEU     HA   41   0.771  -0.063   0.390
    3LEU     CB   42   0.788   0.140   0.360
    3LEU    HB1   43   0.774   0.219   0.420
    3LEU    HB2   44   0.732   0.152   0.277
    3LEU     CG   45   0.936   0.142   0.316
    3LEU     HG   46   0.938   0.206   0.239
    3LEU    CD1   47   0.986   0.009   0.261
    3LEU   HD11   48   1.082   0.018   0.235
    3LEU   HD12   49   0.977  -0.062   0.331
    3LEU   HD13   50   0.932  -0.017   0.181
    3LEU    CD2   51   1.030   0.198   0.422
    3LEU   HD21   52   1.124   0.196   0.387
    3LEU   HD22   53   1.005   0.292   0.444
    3LEU   HD23   54   1.024   0.141   0.505
    3LEU      C   55   0.764   0.020   0.585
    3LEU      O   56   0.684   0.065   0.668
    4PHE      N   57   0.887  -0.028   0.622
    4PHE      H   58   0.947  -0.067   0.551
    4PHE     CA   59   0.935  -0.025   0.761
    4PHE     HA   60   0.902   0.060   0.802
    4PHE     CB   61   0.877  -0.142   0.841
    4PHE    HB1   62   0.934  -0.223   0.827
    4PHE    HB2   63   0.784  -0.162   0.809
    4PHE     CG   64   0.870  -0.115   0.990
    4PHE    CD1   65   0.771  -0.030   1.041
    4PHE    HD1   66   0.705   0.012   0.978
    4PHE    CE1   67   0.764  -0.003   1.177
    4PHE    HE1   68   0.693   0.057   1.213
    4PHE     CZ   69   0.856  -0.061   1.264
    4PHE     HZ   70   0.851  -0.042   1.362
    4PHE    CE2   71   0.955  -0.146   1.215
    4PHE    HE2   72   1.021  -0.187   1.277
    4PHE    CD2   73   0.962  -0.173   1.078
    4PHE    HD2   74   1.033  -0.234   1.043
    4PHE      C   75   1.089  -0.033   0.757
    4PHE      O   76   1.149  -0.077   0.658
    5ILE      N   77   1.154   0.010   0.869
    5ILE      H   78   1.098   0.042   0.947
    5ILE     CA   79   1.300   0.013   0.883
    5ILE     HA   80   1.337  -0.071   0.842
    5ILE     CB   81   1.362   0.130   0.802
    5ILE     HB   82   1.325   0.125   0.709
    5ILE    CG2   83   1.322   0.266   0.859
    5ILE   HG21   84   1.364   0.339   0.804
    5ILE   HG22   85   1.222   0.276   0.856
    5ILE   HG23   86   1.353   0.274   0.954
    5ILE    CG1   87   1.515   0.117   0.790
    5ILE   HG11   88   1.538   0.022   0.769
    5ILE   HG12   89   1.557   0.143   0.877
    5ILE     CD   90   1.575   0.204   0.680
    5ILE    HD1   91   1.674   0.192   0.677
    5ILE    HD2   92   1.535   0.179   0.592
    5ILE    HD3   93   1.554   0.300   0.699
    5ILE      C   94   1.331   0.018   1.034
    5ILE      O   95   1.247   0.053   1.117
    6PHE      N   96   1.458  -0.018   1.071
    6PHE      H   97   1.522  -0.048   1.000
    6PHE     CA   98   1.503  -0.014   1.211
    6PHE     HA   99   1.463   0.067   1.253
    6PHE     CB  100   1.453  -0.137   1.288
    6PHE    HB1  101   1.516  -0.213   1.272
    6PHE    HB2  102   1.362  -0.162   1.254
    6PHE     CG  103   1.444  -0.113   1.436
    6PHE    CD1  104   1.344  -0.029   1.487
    6PHE    HD1  105   1.278   0.014   1.425
    6PHE    CE1  106   1.336  -0.004   1.624
    6PHE    HE1  107   1.264   0.056   1.660
    6PHE     CZ  108   1.427  -0.063   1.712
    6PHE     HZ  109   1.421  -0.045   1.810
    6PHE    CE2  110   1.526  -0.148   1.662
    6PHE    HE2  111   1.591  -0.190   1.724
    6PHE    CD2  112   1.534  -0.173   1.525
    6PHE    HD2  113   1.605  -0.234   1.490
    6PHE      C  114   1.656  -0.008   1.210
    6PHE    OC1  115   1.712   0.027   1.328
    6PHE    OC2  116   1.723  -0.033   1.111
   1.76516   0.68057   2.10832
