UNNAMED
   98
    1VAL      N    1  -0.000  -0.012  -0.010
    1VAL     H1    2  -0.030  -0.089   0.045
    1VAL     H2    3  -0.044   0.072   0.022
    1VAL     H3    4  -0.025  -0.027  -0.106
    1VAL     CA    5   0.147   0.002  -0.000
    1VAL     HA    6   0.188  -0.081  -0.039
    1VAL     CB    7   0.199   0.120  -0.085
    1VAL     HB    8   0.152   0.114  -0.173
    1VAL    CG1    9   0.350   0.111  -0.111
    1VAL   HG11   10   0.379   0.189  -0.166
    1VAL   HG12   11   0.399   0.111  -0.024
    1VAL   HG13   12   0.370   0.026  -0.161
    1VAL    CG2   13   0.165   0.257  -0.026
    1VAL   HG21   14   0.201   0.329  -0.085
    1VAL   HG22   15   0.066   0.267  -0.019
    1VAL   HG23   16   0.206   0.265   0.065
    1VAL      C   17   0.184   0.014   0.150
    1VAL      O   18   0.105   0.056   0.234
    2PHE      N   19   0.312  -0.023   0.182
    2PHE      H   20   0.373  -0.055   0.109
    2PHE     CA   21   0.362  -0.018   0.320
    2PHE     HA   22   0.327   0.066   0.363
    2PHE     CB   23   0.311  -0.138   0.401
    2PHE    HB1   24   0.372  -0.216   0.385
    2PHE    HB2   25   0.219  -0.161   0.370
    2PHE     CG   26   0.306  -0.112   0.549
    2PHE    CD1   27   0.206  -0.029   0.603
    2PHE    HD1   28   0.139   0.013   0.542
    2PHE    CE1   29   0.201  -0.004   0.740
    2PHE    HE1   30   0.130   0.055   0.777
    2PHE     CZ   31   0.295  -0.063   0.825
    2PHE     HZ   32   0.291  -0.045   0.923
    2PHE    CE2   33   0.394  -0.146   0.773
    2PHE    HE2   34   0.461  -0.188   0.834
    2PHE    CD2   35   0.399  -0.171   0.636
    2PHE    HD2   36   0.469  -0.232   0.599
    2PHE      C   37   0.516  -0.018   0.311
    2PHE      O   38   0.576  -0.051   0.208
    3PHE      N   39   0.583   0.018   0.425
    3PHE      H   40   0.529   0.046   0.505
    3PHE     CA   41   0.729   0.018   0.435
    3PHE     HA   42   0.761  -0.066   0.391
    3PHE     CB   43   0.790   0.138   0.360
    3PHE    HB1   44   0.792   0.217   0.421
    3PHE    HB2   45   0.734   0.158   0.280
    3PHE     CG   46   0.932   0.113   0.313
    3PHE    CD1   47   0.955   0.029   0.203
    3PHE    HD1   48   0.878  -0.014   0.156
    3PHE    CE1   49   1.085   0.004   0.159
    3PHE    HE1   50   1.101  -0.056   0.081
    3PHE     CZ   51   1.193   0.063   0.225
    3PHE     HZ   52   1.287   0.045   0.194
    3PHE    CE2   53   1.171   0.147   0.334
    3PHE    HE2   54   1.249   0.189   0.381
    3PHE    CD2   55   1.041   0.172   0.378
    3PHE    HD2   56   1.025   0.232   0.456
    3PHE      C   57   0.765   0.024   0.584
    3PHE      O   58   0.684   0.062   0.669
    4ILE      N   59   0.893  -0.014   0.616
    4ILE      H   60   0.955  -0.042   0.543
    4ILE     CA   61   0.944  -0.015   0.754
    4ILE     HA   62   0.914   0.069   0.799
    4ILE     CB   63   0.884  -0.132   0.836
    4ILE     HB   64   0.784  -0.128   0.824
    4ILE    CG2   65   0.929  -0.268   0.782
    4ILE   HG21   66   0.888  -0.341   0.837
    4ILE   HG22   67   0.899  -0.278   0.687
    4ILE   HG23   68   1.028  -0.275   0.787
    4ILE    CG1   69   0.912  -0.118   0.987
    4ILE   HG11   70   0.898  -0.023   1.014
    4ILE   HG12   71   1.006  -0.145   1.004
    4ILE     CD   72   0.821  -0.205   1.073
    4ILE    HD1   73   0.844  -0.192   1.169
    4ILE    HD2   74   0.725  -0.179   1.057
    4ILE    HD3   75   0.833  -0.301   1.048
    4ILE      C   76   1.099  -0.019   0.744
    4ILE      O   77   1.157  -0.053   0.641
    5PHE      N   78   1.167   0.018   0.858
    5PHE      H   79   1.116   0.047   0.938
    5PHE     CA   80   1.314   0.014   0.864
    5PHE     HA   81   1.344  -0.068   0.814
    5PHE     CB   82   1.375   0.137   0.795
    5PHE    HB1   83   1.376   0.213   0.860
    5PHE    HB2   84   1.318   0.162   0.717
    5PHE     CG   85   1.516   0.113   0.747
    5PHE    CD1   86   1.539   0.029   0.638
    5PHE    HD1   87   1.462  -0.014   0.591
    5PHE    CE1   88   1.669   0.004   0.594
    5PHE    HE1   89   1.685  -0.056   0.516
    5PHE     CZ   90   1.777   0.064   0.659
    5PHE     HZ   91   1.870   0.046   0.628
    5PHE    CE2   92   1.755   0.148   0.768
    5PHE    HE2   93   1.832   0.191   0.814
    5PHE    CD2   94   1.625   0.173   0.812
    5PHE    HD2   95   1.609   0.234   0.890
    5PHE      C   96   1.353   0.008   1.012
    5PHE    OC1   97   1.482  -0.026   1.035
    5PHE    OC2   98   1.275   0.032   1.103
   1.91395   0.67041   1.34212
