UNNAMED
   98
    1VAL      N    1   6.716   7.483   6.982
    1VAL     H1    2   6.686   7.406   7.037
    1VAL     H2    3   6.672   7.567   7.014
    1VAL     H3    4   6.691   7.468   6.886
    1VAL     CA    5   6.863   7.497   6.992
    1VAL     HA    6   6.904   7.414   6.953
    1VAL     CB    7   6.915   7.615   6.907
    1VAL     HB    8   6.868   7.609   6.819
    1VAL    CG1    9   7.066   7.606   6.881
    1VAL   HG11   10   7.095   7.684   6.826
    1VAL   HG12   11   7.115   7.606   6.968
    1VAL   HG13   12   7.086   7.521   6.831
    1VAL    CG2   13   6.881   7.752   6.966
    1VAL   HG21   14   6.917   7.824   6.907
    1VAL   HG22   15   6.782   7.762   6.973
    1VAL   HG23   16   6.922   7.760   7.057
    1VAL      C   17   6.900   7.509   7.142
    1VAL      O   18   6.821   7.551   7.226
    2PHE      N   19   7.028   7.472   7.174
    2PHE      H   20   7.089   7.440   7.101
    2PHE     CA   21   7.078   7.477   7.312
    2PHE     HA   22   7.043   7.561   7.355
    2PHE     CB   23   7.027   7.357   7.393
    2PHE    HB1   24   7.088   7.279   7.377
    2PHE    HB2   25   6.935   7.334   7.362
    2PHE     CG   26   7.022   7.383   7.541
    2PHE    CD1   27   6.922   7.466   7.595
    2PHE    HD1   28   6.855   7.508   7.534
    2PHE    CE1   29   6.917   7.491   7.732
    2PHE    HE1   30   6.846   7.550   7.769
    2PHE     CZ   31   7.011   7.432   7.817
    2PHE     HZ   32   7.007   7.450   7.915
    2PHE    CE2   33   7.110   7.349   7.765
    2PHE    HE2   34   7.177   7.307   7.826
    2PHE    CD2   35   7.115   7.324   7.628
    2PHE    HD2   36   7.185   7.263   7.591
    2PHE      C   37   7.232   7.477   7.303
    2PHE      O   38   7.292   7.444   7.200
    3PHE      N   39   7.299   7.513   7.417
    3PHE      H   40   7.245   7.541   7.497
    3PHE     CA   41   7.445   7.513   7.427
    3PHE     HA   42   7.477   7.429   7.383
    3PHE     CB   43   7.506   7.633   7.352
    3PHE    HB1   44   7.508   7.712   7.413
    3PHE    HB2   45   7.450   7.653   7.272
    3PHE     CG   46   7.648   7.608   7.305
    3PHE    CD1   47   7.671   7.524   7.195
    3PHE    HD1   48   7.594   7.481   7.148
    3PHE    CE1   49   7.801   7.499   7.151
    3PHE    HE1   50   7.817   7.439   7.073
    3PHE     CZ   51   7.909   7.558   7.217
    3PHE     HZ   52   8.003   7.540   7.186
    3PHE    CE2   53   7.887   7.642   7.326
    3PHE    HE2   54   7.965   7.684   7.373
    3PHE    CD2   55   7.757   7.667   7.370
    3PHE    HD2   56   7.741   7.727   7.448
    3PHE      C   57   7.481   7.519   7.576
    3PHE      O   58   7.400   7.557   7.661
    4ILE      N   59   7.609   7.481   7.608
    4ILE      H   60   7.671   7.453   7.535
    4ILE     CA   61   7.660   7.480   7.746
    4ILE     HA   62   7.630   7.564   7.791
    4ILE     CB   63   7.600   7.363   7.828
    4ILE     HB   64   7.500   7.367   7.816
    4ILE    CG2   65   7.645   7.227   7.774
    4ILE   HG21   66   7.604   7.154   7.829
    4ILE   HG22   67   7.615   7.217   7.679
    4ILE   HG23   68   7.744   7.220   7.779
    4ILE    CG1   69   7.628   7.377   7.979
    4ILE   HG11   70   7.614   7.472   8.006
    4ILE   HG12   71   7.722   7.350   7.996
    4ILE     CD   72   7.537   7.290   8.065
    4ILE    HD1   73   7.560   7.303   8.161
    4ILE    HD2   74   7.441   7.316   8.049
    4ILE    HD3   75   7.549   7.194   8.040
    4ILE      C   76   7.815   7.476   7.736
    4ILE      O   77   7.873   7.442   7.633
    5PHE      N   78   7.883   7.513   7.850
    5PHE      H   79   7.832   7.542   7.930
    5PHE     CA   80   8.030   7.509   7.856
    5PHE     HA   81   8.060   7.427   7.806
    5PHE     CB   82   8.091   7.632   7.787
    5PHE    HB1   83   8.092   7.708   7.852
    5PHE    HB2   84   8.034   7.657   7.709
    5PHE     CG   85   8.232   7.608   7.739
    5PHE    CD1   86   8.255   7.524   7.630
    5PHE    HD1   87   8.178   7.481   7.583
    5PHE    CE1   88   8.385   7.499   7.586
    5PHE    HE1   89   8.401   7.439   7.508
    5PHE     CZ   90   8.493   7.559   7.651
    5PHE     HZ   91   8.586   7.541   7.620
    5PHE    CE2   92   8.471   7.643   7.760
    5PHE    HE2   93   8.548   7.686   7.806
    5PHE    CD2   94   8.341   7.668   7.804
    5PHE    HD2   95   8.325   7.729   7.882
    5PHE      C   96   8.069   7.503   8.004
    5PHE    OC1   97   8.198   7.469   8.027
    5PHE    OC2   98   7.991   7.527   8.095
  15.00000  15.00000  15.00000
